# vtk DataFile Version 3.0
 BVHTree 
ASCII
DATASET UNSTRUCTURED_GRID
POINTS 59 double
0.11 0.09 0.0
0.96 0.09 0.0
0.96 0.88 0.0
0.11 0.88 0.0


0.535 0.09 0.0
0.96 0.09 0.0
0.96 0.88 0.0
0.535 0.88 0.0


0.11 0.09 0.0
0.535 0.09 0.0
0.535 0.88 0.0
0.11 0.88 0.0


0.535 0.09 0.0
0.96 0.09 0.0
0.96 0.485 0.0
0.535 0.485 0.0


0.11 0.44 0.0
0.535 0.44 0.0
0.535 0.88 0.0
0.11 0.88 0.0


0.11 0.09 0.0
0.535 0.09 0.0
0.535 0.51 0.0
0.11 0.51 0.0


0.7475 0.09 0.0
0.96 0.09 0.0
0.96 0.485 0.0
0.7475 0.485 0.0


0.11 0.61 0.0
0.535 0.61 0.0
0.535 0.88 0.0
0.11 0.88 0.0


0.11 0.44 0.0
0.535 0.44 0.0
0.535 0.75 0.0
0.11 0.75 0.0


0.11 0.09 0.0
0.3225 0.09 0.0
0.3225 0.51 0.0
0.11 0.51 0.0

.13 .88 0.0
.26 .87 0.0
.11 .77 0.0
.18 .78 0.0
.13 .74 0.0
.37 .75 0.0
.12 .61 0.0
.25 .51 0.0
.11 .44 0.0
.26 .40 0.0
.12 .25 0.0
.85 .38 0.0
.94 .37 0.0
.84 .26 0.0
.92 .27 0.0
.96 .28 0.0
.84 .16 0.0
.92 .16 0.0
.93 .09 0.0



CELLS 27 118
4 0 1 2 3 

4 4 5 6 7 

4 8 9 10 11 

4 12 13 14 15 

4 16 17 18 19 

4 20 21 22 23 

4 24 25 26 27 

4 28 29 30 31 

4 32 33 34 35 

4 36 37 38 39 

3 41 40 43
3 40 42 43
3 41 43 45
3 43 42 44
3 43 44 45
3 42 46 44
3 45 44 46
3 45 46 47
3 47 46 48
3 47 48 49
3 49 48 50
3 51 53 54
3 52 51 54
3 52 54 55
3 54 53 56
3 54 56 57
3 56 58 57


CELL_TYPES 27
9
9
9
9
9
9
9
9
9
9
5
5
5
5
5
5
5
5
5
5
5
5
5
5
5
5
5


CELL_DATA 27
SCALARS level int
LOOKUP_TABLE default
0
1
1
2
2
2
3
3
3
3
-1
-1
-1
-1
-1
-1
-1
-1
-1
-1
-1
-1
-1
-1
-1
-1
-1


SCALARS ID int
LOOKUP_TABLE default
0
1
2
3
4
5
6
7
8
9
10
11
12
13
14
15
16
17
18
19
20
21
22
23
24
25
26


