# vtk DataFile Version 3.0
 BVHTree 
ASCII
DATASET UNSTRUCTURED_GRID
POINTS 43 double
0.11 0.09 0.0
0.96 0.09 0.0
0.96 0.88 0.0
0.11 0.88 0.0


0.535 0.09 0.0
0.96 0.09 0.0
0.96 0.88 0.0
0.535 0.88 0.0


0.11 0.09 0.0
0.535 0.09 0.0
0.535 0.88 0.0
0.11 0.88 0.0


0.535 0.09 0.0
0.96 0.09 0.0
0.96 0.485 0.0
0.535 0.485 0.0


0.11 0.44 0.0
0.535 0.44 0.0
0.535 0.88 0.0
0.11 0.88 0.0


0.11 0.09 0.0
0.535 0.09 0.0
0.535 0.51 0.0
0.11 0.51 0.0


.13 .88 0.0
.26 .87 0.0
.11 .77 0.0
.18 .78 0.0
.13 .74 0.0
.37 .75 0.0
.12 .61 0.0
.25 .51 0.0
.11 .44 0.0
.26 .40 0.0
.12 .25 0.0
.85 .38 0.0
.94 .37 0.0
.84 .26 0.0
.92 .27 0.0
.96 .28 0.0
.84 .16 0.0
.92 .16 0.0
.93 .09 0.0



CELLS 23 98
4 0 1 2 3 

4 4 5 6 7 

4 8 9 10 11 

4 12 13 14 15 

4 16 17 18 19 

4 20 21 22 23 

3 25 24 27
3 24 26 27
3 25 27 29
3 27 26 28
3 27 28 29
3 26 30 28
3 29 28 30
3 29 30 31
3 31 30 32
3 31 32 33
3 33 32 34
3 35 37 38
3 36 35 38
3 36 38 39
3 38 37 40
3 38 40 41
3 40 42 41


CELL_TYPES 23
9
9
9
9
9
9
5
5
5
5
5
5
5
5
5
5
5
5
5
5
5
5
5


CELL_DATA 23
SCALARS level int
LOOKUP_TABLE default
0
1
1
2
2
2
-1
-1
-1
-1
-1
-1
-1
-1
-1
-1
-1
-1
-1
-1
-1
-1
-1


SCALARS ID int
LOOKUP_TABLE default
0
1
2
3
4
5
10
11
12
13
14
15
16
17
18
19
20
21
22
23
24
25
26


