# vtk DataFile Version 3.0
 BVHTree 
ASCII
DATASET UNSTRUCTURED_GRID
POINTS 31 double
0.11 0.09 0.0
0.96 0.09 0.0
0.96 0.88 0.0
0.11 0.88 0.0


0.535 0.09 0.0
0.96 0.09 0.0
0.96 0.88 0.0
0.535 0.88 0.0


0.11 0.09 0.0
0.535 0.09 0.0
0.535 0.88 0.0
0.11 0.88 0.0


.13 .88 0.0
.26 .87 0.0
.11 .77 0.0
.18 .78 0.0
.13 .74 0.0
.37 .75 0.0
.12 .61 0.0
.25 .51 0.0
.11 .44 0.0
.26 .40 0.0
.12 .25 0.0
.85 .38 0.0
.94 .37 0.0
.84 .26 0.0
.92 .27 0.0
.96 .28 0.0
.84 .16 0.0
.92 .16 0.0
.93 .09 0.0



CELLS 20 83
4 0 1 2 3 

4 4 5 6 7 

4 8 9 10 11 

3 13 12 15
3 12 14 15
3 13 15 17
3 15 14 16
3 15 16 17
3 14 18 16
3 17 16 18
3 17 18 19
3 19 18 20
3 19 20 21
3 21 20 22
3 23 25 26
3 24 23 26
3 24 26 27
3 26 25 28
3 26 28 29
3 28 30 29


CELL_TYPES 20
9
9
9
5
5
5
5
5
5
5
5
5
5
5
5
5
5
5
5
5


CELL_DATA 20
SCALARS level int
LOOKUP_TABLE default
0
1
1
-1
-1
-1
-1
-1
-1
-1
-1
-1
-1
-1
-1
-1
-1
-1
-1
-1


SCALARS ID int
LOOKUP_TABLE default
0
1
2
10
11
12
13
14
15
16
17
18
19
20
21
22
23
24
25
26


