# vtk DataFile Version 3.0
 BVHTree 
ASCII
DATASET UNSTRUCTURED_GRID
POINTS 40 double
0.11 0.09 0.0
0.96 0.09 0.0
0.96 0.88 0.0
0.11 0.88 0.0


0.535 0.09 0.0
0.96 0.09 0.0
0.96 0.88 0.0
0.535 0.88 0.0


0.11 0.09 0.0
0.535 0.09 0.0
0.535 0.88 0.0
0.11 0.88 0.0


0.535 0.09 0.0
0.96 0.09 0.0
0.96 0.485 0.0
0.535 0.485 0.0


0.11 0.44 0.0
0.535 0.44 0.0
0.535 0.88 0.0
0.11 0.88 0.0


0.11 0.09 0.0
0.535 0.09 0.0
0.535 0.51 0.0
0.11 0.51 0.0


0.7475 0.09 0.0
0.96 0.09 0.0
0.96 0.485 0.0
0.7475 0.485 0.0


0.11 0.61 0.0
0.535 0.61 0.0
0.535 0.88 0.0
0.11 0.88 0.0


0.11 0.44 0.0
0.535 0.44 0.0
0.535 0.75 0.0
0.11 0.75 0.0


0.11 0.09 0.0
0.3225 0.09 0.0
0.3225 0.51 0.0
0.11 0.51 0.0



CELLS 10 50
4 0 1 2 3 

4 4 5 6 7 

4 8 9 10 11 

4 12 13 14 15 

4 16 17 18 19 

4 20 21 22 23 

4 24 25 26 27 

4 28 29 30 31 

4 32 33 34 35 

4 36 37 38 39 


CELL_TYPES 10
9
9
9
9
9
9
9
9
9
9

CELL_DATA 10
SCALARS level int
LOOKUP_TABLE default
0
1
1
2
2
2
3
3
3
3


SCALARS ID int
LOOKUP_TABLE default
0
1
2
3
4
5
6
7
8
9


