# vtk DataFile Version 3.0
 BVHTree 
ASCII
DATASET UNSTRUCTURED_GRID
POINTS 23 double
0.11 0.09 0.0
0.96 0.09 0.0
0.96 0.88 0.0
0.11 0.88 0.0


.13 .88 0.0
.26 .87 0.0
.11 .77 0.0
.18 .78 0.0
.13 .74 0.0
.37 .75 0.0
.12 .61 0.0
.25 .51 0.0
.11 .44 0.0
.26 .40 0.0
.12 .25 0.0
.85 .38 0.0
.94 .37 0.0
.84 .26 0.0
.92 .27 0.0
.96 .28 0.0
.84 .16 0.0
.92 .16 0.0
.93 .09 0.0



CELLS 18 73
4 0 1 2 3 

3 5 4 7
3 4 6 7
3 5 7 9
3 7 6 8
3 7 8 9
3 6 10 8
3 9 8 10
3 9 10 11
3 11 10 12
3 11 12 13
3 13 12 14
3 15 17 18
3 16 15 18
3 16 18 19
3 18 17 20
3 18 20 21
3 20 22 21


CELL_TYPES 18
9
5
5
5
5
5
5
5
5
5
5
5
5
5
5
5
5
5


CELL_DATA 18
SCALARS level int
LOOKUP_TABLE default
0
-1
-1
-1
-1
-1
-1
-1
-1
-1
-1
-1
-1
-1
-1
-1
-1
-1


SCALARS ID int
LOOKUP_TABLE default
0
10
11
12
13
14
15
16
17
18
19
20
21
22
23
24
25
26


